DOI,Composition,Alloy_or_not,Pt_or_not,Weight_ratio (wt%),N_doped (at%),pH,Current_density (mA/cm2),Overpotential (mV),Particle_size (nm)
10.1016/j.jcat.2018.11.006,Pt,0,1,2.3,0,0.3,10,33.2,2.1
10.1016/j.jcat.2018.11.006,Pt,0,1,2.3,0,0.3,20,43.5,2.1
10.1016/j.jcat.2018.11.006,Pt,0,1,2.3,0,0.3,40,56.3,2.1
10.1016/j.jcat.2018.11.006,Pt,0,1,2.3,0,0.3,50,61.2,2.1
10.1016/j.jcat.2018.11.006,Pt,0,1,2.3,0,0.3,60,64.8,2.1
10.1016/j.jcat.2018.11.006,Pt,0,1,2.3,0,0.3,100,78,2.1
10.1016/j.jcat.2017.08.005,Pt,0,1,10,0,0.3,10,31.7,3.5
10.1016/j.jcat.2017.08.005,Pt,0,1,10,0,0.3,20,44.9,3.5
10.1016/j.jcat.2017.08.005,Pt,0,1,10,0,0.3,40,68.6,3.5
10.1016/j.jcat.2017.08.005,Pt,0,1,10,0,0.3,50,78.2,3.5
10.1016/j.jcat.2017.08.005,Pt,0,1,10,0,0.3,60,88.5,3.5
10.1016/j.jcat.2017.08.005,Pt,0,1,2.7,0,0.3,10,37.1,2.1
10.1016/j.jallcom.2020.153784,CoNi,1,0,91.4,0,14,200,305,20
10.1016/j.jallcom.2020.153784,CoNi,1,0,91.4,0,14,150,285,20
10.1016/j.jallcom.2020.153784,CoNi,1,0,91.4,0,14,100,259,20
10.1016/j.jallcom.2020.153784,CoNi,1,0,91.4,0,14,80,244,20
10.1016/j.jallcom.2020.153784,CoNi,1,0,91.4,0,14,60,224,20
10.1016/j.jallcom.2020.153784,CoNi,1,0,91.4,0,14,50,212,20
10.1016/j.jallcom.2020.153784,CoNi,1,0,91.4,0,14,40,196,20
10.1016/j.jallcom.2020.153784,CoNi,1,0,91.4,0,14,20,149,20
10.1016/j.jallcom.2020.153784,CoNi,1,0,91.4,0,14,10,104,20
10.1016/j.jallcom.2020.153784,Co,0,0,86.8,0,14,200,423,20
10.1016/j.jallcom.2020.153784,Co,0,0,86.8,0,14,150,414,20
10.1016/j.jallcom.2020.153784,Co,0,0,86.8,0,14,100,398,20
10.1016/j.jallcom.2020.153784,Co,0,0,86.8,0,14,80,387,20
10.1016/j.jallcom.2020.153784,Co,0,0,86.8,0,14,60,372,20
10.1016/j.jallcom.2020.153784,Co,0,0,86.8,0,14,50,361,20
10.1016/j.jallcom.2020.153784,Co,0,0,86.8,0,14,40,347,20
10.1016/j.jallcom.2020.153784,Co,0,0,86.8,0,14,20,292,20
10.1016/j.jallcom.2020.153784,Co,0,0,86.8,0,14,10,206,20
10.1016/j.jallcom.2020.153784,Ni,0,0,85,0,14,200,315,20
10.1016/j.jallcom.2020.153784,Ni,0,0,85,0,14,150,291,20
10.1016/j.jallcom.2020.153784,Ni,0,0,85,0,14,100,257,20
10.1016/j.jallcom.2020.153784,Ni,0,0,85,0,14,80,243,20
10.1016/j.jallcom.2020.153784,Ni,0,0,85,0,14,60,224,20
10.1016/j.jallcom.2020.153784,Ni,0,0,85,0,14,50,211,20
10.1016/j.jallcom.2020.153784,Ni,0,0,85,0,14,40,195,20
10.1016/j.jallcom.2020.153784,Ni,0,0,85,0,14,20,147,20
10.1016/j.jallcom.2020.153784,Ni,0,0,85,0,14,10,110,20
10.1016/j.jallcom.2019.03.330,CoNi,1,0,63.33,10.06,14,200,242,30
10.1016/j.jallcom.2019.03.330,CoNi,1,0,63.33,10.06,14,150,220,30
10.1016/j.jallcom.2019.03.330,CoNi,1,0,63.33,10.06,14,100,195,30
10.1016/j.jallcom.2019.03.330,CoNi,1,0,63.33,10.06,14,80,183,30
10.1016/j.jallcom.2019.03.330,CoNi,1,0,63.33,10.06,14,60,169,30
10.1016/j.jallcom.2019.03.330,CoNi,1,0,63.33,10.06,14,50,161,30
10.1016/j.jallcom.2019.03.330,CoNi,1,0,63.33,10.06,14,40,152,30
10.1016/j.jallcom.2019.03.330,CoNi,1,0,63.33,10.06,14,20,126,30
10.1016/j.jallcom.2019.03.330,CoNi,1,0,63.33,10.06,14,10,100,30
10.1016/j.ijhydene.2021.06.193,SnPtCo,1,1,10,0,14,100,231,15
10.1016/j.ijhydene.2021.06.193,SnPtCo,1,1,10,0,14,80,193,15
10.1016/j.ijhydene.2021.06.193,SnPtCo,1,1,10,0,14,60,150,15
10.1016/j.ijhydene.2021.06.193,SnPtCo,1,1,10,0,14,50,130,15
10.1016/j.ijhydene.2021.06.193,SnPtCo,1,1,10,0,14,40,108,15
10.1016/j.ijhydene.2021.06.193,SnPtCo,1,1,10,0,14,20,65,15
10.1016/j.ijhydene.2021.06.193,SnPtCo,1,1,10,0,14,10,39,15
10.1016/j.ijhydene.2021.06.193,SnCo,1,0,10,0,14,100,262,5
10.1016/j.ijhydene.2021.06.193,SnCo,1,0,10,0,14,80,225,5
10.1016/j.ijhydene.2021.06.193,SnCo,1,0,10,0,14,60,186,5
10.1016/j.ijhydene.2021.06.193,SnCo,1,0,10,0,14,50,165,5
10.1016/j.ijhydene.2021.06.193,SnCo,1,0,10,0,14,40,145,5
10.1016/j.ijhydene.2021.06.193,SnCo,1,0,10,0,14,20,100,5
10.1016/j.ijhydene.2021.06.193,SnCo,1,0,10,0,14,10,74,5
10.1016/j.ijhydene.2021.06.193,Co,0,0,10,0,14,100,308,4
10.1016/j.ijhydene.2021.06.193,Co,0,0,10,0,14,80,272,4
10.1016/j.ijhydene.2021.06.193,Co,0,0,10,0,14,60,230,4
10.1016/j.ijhydene.2021.06.193,Co,0,0,10,0,14,50,209,4
10.1016/j.ijhydene.2021.06.193,Co,0,0,10,0,14,40,188,4
10.1016/j.ijhydene.2021.06.193,Co,0,0,10,0,14,20,142,4
10.1016/j.ijhydene.2021.06.193,Co,0,0,10,0,14,10,114,4
10.1016/j.ijhydene.2019.10.036,Pt,0,1,5.8,0,0.3,10,39.5,4.3
10.1016/j.ijhydene.2019.10.036,Pt,0,1,5.8,0,0.3,20,49.3,4.3
10.1016/j.ijhydene.2019.10.036,Pt,0,1,5.8,0,0.3,40,64.5,4.3
10.1016/j.ijhydene.2019.10.036,Pt,0,1,5.8,0,0.3,50,70.4,4.3
10.1016/j.ijhydene.2019.10.036,Pt,0,1,5.8,0,0.3,60,76.3,4.3
10.1016/j.ijhydene.2019.10.036,Pt,0,1,5.8,0,0.3,100,96.9,4.3
10.1016/j.ijhydene.2019.10.036,Pt,0,1,5.7,6,0.3,10,22,4.3
10.1016/j.ijhydene.2019.10.036,Pt,0,1,5.7,6,0.3,20,25.4,4.3
10.1016/j.ijhydene.2019.10.036,Pt,0,1,5.7,6,0.3,40,31.3,4.3
10.1016/j.ijhydene.2019.10.036,Pt,0,1,5.7,6,0.3,50,33.8,4.3
10.1016/j.ijhydene.2019.10.036,Pt,0,1,5.7,6,0.3,60,36.3,4.3
10.1016/j.ijhydene.2019.10.036,Pt,0,1,5.7,6,0.3,100,45.2,4.3
10.1016/j.ijhydene.2017.11.048,AuNi,1,0,51.4,0,0.3,20,63,17.2
10.1016/j.ijhydene.2017.11.048,AuNi,1,0,51.4,0,0.3,10,50,17.2
10.1016/j.ijhydene.2017.11.048,AuNi,1,0,61.2,0,0.3,20,55,16
10.1016/j.ijhydene.2017.11.048,AuNi,1,0,61.2,0,0.3,10,40,16
10.1016/j.ijhydene.2017.11.048,AuNi,1,0,27.1,0,0.3,20,82,14.5
10.1016/j.ijhydene.2017.11.048,AuNi,1,0,27.1,0,0.3,10,70,14.5
10.1016/j.ijhydene.2017.11.048,Au,0,0,11.4,0,0.3,20,286,13
10.1016/j.ijhydene.2017.11.048,Au,0,0,11.4,0,0.3,10,220,13
10.1016/j.ijhydene.2017.11.048,Ni,0,0,7.1,0,0.3,20,189,6.6
10.1016/j.ijhydene.2017.11.048,Ni,0,0,7.1,0,0.3,10,158,6.6
10.1016/j.electacta.2021.138785,NiFe,1,0,12.5,8.1,14,40,361,15
10.1016/j.electacta.2021.138785,NiFe,1,0,12.5,8.1,14,100,314,15
10.1016/j.electacta.2021.138785,NiFe,1,0,12.5,8.1,14,80,301,15
10.1016/j.electacta.2021.138785,NiFe,1,0,12.5,8.1,14,60,283,15
10.1016/j.electacta.2021.138785,NiFe,1,0,12.5,8.1,14,50,273,15
10.1016/j.electacta.2021.138785,NiFe,1,0,12.5,8.1,14,20,228,15
10.1016/j.electacta.2021.138785,NiFe,1,0,12.5,8.1,14,10,198,15
10.1016/j.electacta.2020.135855,PtPd,1,1,4.24,0.89,14,20,102,2.75
10.1016/j.electacta.2020.135855,PtPd,1,1,4.24,0.89,14,10,67,2.75
10.1016/j.electacta.2019.134895,NiPt,1,1,27.91,15.94,0.3,50,101,20
10.1016/j.electacta.2019.134895,NiPt,1,1,27.91,15.94,0.3,40,95,20
10.1016/j.electacta.2019.134895,NiPt,1,1,27.91,15.94,0.3,20,76.32,20
10.1016/j.electacta.2019.134895,NiPt,1,1,27.91,15.94,13,50,67,20
10.1016/j.electacta.2019.134895,NiPt,1,1,27.91,15.94,0.3,10,63,20
10.1016/j.electacta.2019.134895,NiPt,1,1,27.91,15.94,13,40,52,20
10.1016/j.electacta.2019.134895,NiPt,1,1,27.91,15.94,13,20,33.8,20
10.1016/j.electacta.2019.134895,NiPt,1,1,27.91,15.94,13,10,27,20
10.1016/j.electacta.2019.134895,PtNi,1,1,27.91,13.4,13,10,26.7,19
10.1016/j.electacta.2019.134895,PtNi,1,1,27.91,13.4,13,20,34,19
10.1016/j.electacta.2019.134895,PtNi,1,1,27.91,13.4,13,40,53.5,19
10.1016/j.electacta.2019.134895,PtNi,1,1,27.91,13.4,13,50,67.3,19
10.1016/j.electacta.2019.134895,PtNi,1,1,27.91,13.4,0.3,10,65,19
10.1016/j.electacta.2019.134895,PtNi,1,1,27.91,13.4,0.3,20,76.9,19
10.1016/j.electacta.2019.134895,PtNi,1,1,27.91,13.4,0.3,40,93.3,19
10.1016/j.electacta.2019.134895,PtNi,1,1,27.91,13.4,0.3,50,102,19
10.1016/j.electacta.2019.134895,Ni,0,0,55.61,2.15,0.3,50,862,20
10.1016/j.electacta.2019.134895,Ni,0,0,55.61,2.15,0.3,40,812,20
10.1016/j.electacta.2019.134895,Ni,0,0,55.61,2.15,0.3,20,709.8,20
10.1016/j.electacta.2019.134895,Ni,0,0,55.61,2.15,0.3,10,589,20
10.1016/j.electacta.2019.134895,Ni,0,0,55.61,2.15,13,50,479,20
10.1016/j.electacta.2019.134895,Ni,0,0,55.61,2.15,13,40,422,20
10.1016/j.electacta.2019.134895,Ni,0,0,55.61,2.15,13,20,327,20
10.1016/j.electacta.2019.134895,Ni,0,0,55.61,2.15,13,10,260,20
10.1016/j.electacta.2019.06.116,Pt,0,1,1.26,0,14,10,42,4.2
10.1016/j.electacta.2019.06.116,Pt,0,1,1.26,0,14,20,61,4.2
10.1016/j.electacta.2019.06.116,Pt,0,1,1.26,0,14,40,86,4.2
10.1016/j.electacta.2019.06.116,Pt,0,1,1.26,0,14,50,97,4.2
10.1016/j.electacta.2019.06.116,Pt,0,1,1.26,0,14,60,105,4.2
10.1016/j.electacta.2019.06.116,Pt,0,1,1.26,0,14,100,137,4.2
10.1016/j.electacta.2019.06.116,Pt,0,1,2.17,0,14,10,65,4
10.1016/j.electacta.2019.06.116,Pt,0,1,2.17,0,14,20,95,4
10.1016/j.electacta.2019.06.116,Pt,0,1,2.17,0,14,40,137,4
10.1016/j.electacta.2019.06.116,Pt,0,1,2.17,0,14,50,156,4
10.1016/j.electacta.2019.06.116,Pt,0,1,2.17,0,14,60,170,4
10.1016/j.electacta.2019.06.116,Pt,0,1,2.17,0,14,100,217,4
10.1016/j.electacta.2019.03.179,IrCo,1,0,45.2,3.58,0.3,100,66,30
10.1016/j.electacta.2019.03.179,IrCo,1,0,45.2,3.58,0.3,80,49,30
10.1016/j.electacta.2019.03.179,IrCo,1,0,45.2,3.58,0.3,60,41,30
10.1016/j.electacta.2019.03.179,IrCo,1,0,45.2,3.58,0.3,50,36,30
10.1016/j.electacta.2019.03.179,IrCo,1,0,45.2,3.58,0.3,40,33,30
10.1016/j.electacta.2019.03.179,IrCo,1,0,45.2,3.58,0.3,20,27.5,30
10.1016/j.electacta.2019.03.179,IrCo,1,0,45.2,3.58,0.3,10,24,30
10.1016/j.cej.2021.131085,PtRu,1,1,27,32.34,13,50,124,1.9
10.1016/j.cej.2021.131085,PtRu,1,1,27,32.34,13,40,111,1.9
10.1016/j.cej.2021.131085,PtRu,1,1,27,32.34,0.3,20,82,1.9
10.1016/j.cej.2021.131085,PtRu,1,1,27,32.34,13,20,81,1.9
10.1016/j.cej.2021.131085,PtRu,1,1,27,32.34,13,10,61,1.9
10.1016/j.cej.2021.131085,PtRu,1,1,27,32.34,0.3,10,53,1.9
10.1016/j.cej.2021.130749,CuPt,1,1,4.42,2.9,13,10,46,5
10.1016/j.cej.2021.130749,CuPt,1,1,3.5,2.08,13,10,224,5
10.1016/j.cej.2021.130749,Pt,0,1,3.24,1.23,13,10,80,5
10.1016/j.cej.2021.129319,RuNi,1,0,2.17,0,14,80,248,2.5
10.1016/j.cej.2021.129319,RuNi,1,0,2.17,0,14,60,212,2.5
10.1016/j.cej.2021.129319,RuNi,1,0,2.17,0,14,50,193,2.5
10.1016/j.cej.2021.129319,RuNi,1,0,2.17,0,0.3,80,175,2.5
10.1016/j.cej.2021.129319,RuNi,1,0,2.17,0,14,40,171,2.5
10.1016/j.cej.2021.129319,RuNi,1,0,2.17,0,0.3,60,144,2.5
10.1016/j.cej.2021.129319,RuNi,1,0,2.17,0,0.3,50,125,2.5
10.1016/j.cej.2021.129319,RuNi,1,0,2.17,0,14,20,123,2.5
10.1016/j.cej.2021.129319,RuNi,1,0,2.17,0,0.3,40,105,2.5
10.1016/j.cej.2021.129319,RuNi,1,0,2.17,0,14,10,93,2.5
10.1016/j.cej.2021.129319,RuNi,1,0,2.17,0,0.3,20,61,2.5
10.1016/j.cej.2021.129319,RuNi,1,0,2.17,0,0.3,10,34,2.5
10.1016/j.cej.2020.128205,PtEr,1,1,8.28,0,14,100,92.7,5
10.1016/j.cej.2020.128205,PtEr,1,1,8.28,0,14,10,16,5
10.1016/j.cej.2020.128205,PtEr,1,1,7.49,4.69,14,100,50,5
10.1016/j.cej.2020.128205,PtEr,1,1,7.49,4.69,14,10,7,5
10.1016/j.cej.2020.128047,CoRu,1,0,6.84,0,7.4,40,200,3.5
10.1016/j.cej.2020.128047,CoRu,1,0,6.84,0,0.3,100,170,3.5
10.1016/j.cej.2020.128047,CoRu,1,0,6.84,0,0.3,80,161,3.5
10.1016/j.cej.2020.128047,CoRu,1,0,6.84,0,7.4,20,150,3.5
10.1016/j.cej.2020.128047,CoRu,1,0,6.84,0,0.3,60,148,3.5
10.1016/j.cej.2020.128047,CoRu,1,0,6.84,0,0.3,50,141,3.5
10.1016/j.cej.2020.128047,CoRu,1,0,6.84,0,0.3,40,133,3.5
10.1016/j.cej.2020.128047,CoRu,1,0,6.84,0,14,100,128,3.5
10.1016/j.cej.2020.128047,CoRu,1,0,6.84,0,14,80,116,3.5
10.1016/j.cej.2020.128047,CoRu,1,0,6.84,0,0.3,20,108,3.5
10.1016/j.cej.2020.128047,CoRu,1,0,6.84,0,7.4,10,101,3.5
10.1016/j.cej.2020.128047,CoRu,1,0,6.84,0,14,60,100,3.5
10.1016/j.cej.2020.128047,CoRu,1,0,6.84,0,14,50,90,3.5
10.1016/j.cej.2020.128047,CoRu,1,0,6.84,0,0.3,10,85,3.5
10.1016/j.cej.2020.128047,CoRu,1,0,6.84,0,14,40,79,3.5
10.1016/j.cej.2020.128047,CoRu,1,0,6.84,0,14,20,48,3.5
10.1016/j.cej.2020.128047,CoRu,1,0,6.84,0,14,10,23,3.5
10.1016/j.cej.2020.128047,CoRu,1,0,4.43,0,0.3,100,116,3.5
10.1016/j.cej.2020.128047,CoRu,1,0,4.43,0,0.3,80,109,3.5
10.1016/j.cej.2020.128047,CoRu,1,0,4.43,0,14,100,101,3.5
10.1016/j.cej.2020.128047,CoRu,1,0,4.43,0,0.3,60,100,3.5
10.1016/j.cej.2020.128047,CoRu,1,0,4.43,0,0.3,50,94,3.5
10.1016/j.cej.2020.128047,CoRu,1,0,4.43,0,14,80,91,3.5
10.1016/j.cej.2020.128047,CoRu,1,0,4.43,0,0.3,40,87,3.5
10.1016/j.cej.2020.128047,CoRu,1,0,4.43,0,7.4,40,86,3.5
10.1016/j.cej.2020.128047,CoRu,1,0,4.43,0,14,60,76,3.5
10.1016/j.cej.2020.128047,CoRu,1,0,4.43,0,14,50,69,3.5
10.1016/j.cej.2020.128047,CoRu,1,0,4.43,0,0.3,20,67,3.5
10.1016/j.cej.2020.128047,CoRu,1,0,4.43,0,14,40,59,3.5
10.1016/j.cej.2020.128047,CoRu,1,0,4.43,0,7.4,20,57,3.5
10.1016/j.cej.2020.128047,CoRu,1,0,4.43,0,0.3,10,44,3.5
10.1016/j.cej.2020.128047,CoRu,1,0,4.43,0,7.4,10,39,3.5
10.1016/j.cej.2020.128047,CoRu,1,0,4.43,0,14,20,34,3.5
10.1016/j.cej.2020.128047,CoRu,1,0,4.43,0,14,10,14,3.5
10.1016/j.cej.2020.128047,CoRu,1,0,2.05,0,0.3,80,176,3.5
10.1016/j.cej.2020.128047,CoRu,1,0,2.05,0,7.4,60,174,3.5
10.1016/j.cej.2020.128047,CoRu,1,0,2.05,0,0.3,60,164,3.5
10.1016/j.cej.2020.128047,CoRu,1,0,2.05,0,7.4,50,162,3.5
10.1016/j.cej.2020.128047,CoRu,1,0,2.05,0,0.3,50,157,3.5
10.1016/j.cej.2020.128047,CoRu,1,0,2.05,0,14,100,152,3.5
10.1016/j.cej.2020.128047,CoRu,1,0,2.05,0,7.4,40,148,3.5
10.1016/j.cej.2020.128047,CoRu,1,0,2.05,0,0.3,40,148,3.5
10.1016/j.cej.2020.128047,CoRu,1,0,2.05,0,14,80,138,3.5
10.1016/j.cej.2020.128047,CoRu,1,0,2.05,0,14,60,124,3.5
10.1016/j.cej.2020.128047,CoRu,1,0,2.05,0,0.3,20,120,3.5
10.1016/j.cej.2020.128047,CoRu,1,0,2.05,0,14,50,114,3.5
10.1016/j.cej.2020.128047,CoRu,1,0,2.05,0,7.4,20,107,3.5
10.1016/j.cej.2020.128047,CoRu,1,0,2.05,0,14,40,104,3.5
10.1016/j.cej.2020.128047,CoRu,1,0,2.05,0,0.3,10,93,3.5
10.1016/j.cej.2020.128047,CoRu,1,0,2.05,0,14,20,71,3.5
10.1016/j.cej.2020.128047,CoRu,1,0,2.05,0,7.4,10,68,3.5
10.1016/j.cej.2020.128047,CoRu,1,0,2.05,0,14,10,43,3.5
10.1016/j.cej.2020.128047,Ru,0,0,1.01,0,7.4,20,185,3
10.1016/j.cej.2020.128047,Ru,0,0,1.01,0,0.3,100,141,3
10.1016/j.cej.2020.128047,Ru,0,0,1.01,0,0.3,80,133,3
10.1016/j.cej.2020.128047,Ru,0,0,1.01,0,7.4,10,129,3
10.1016/j.cej.2020.128047,Ru,0,0,1.01,0,14,100,125,3
10.1016/j.cej.2020.128047,Ru,0,0,1.01,0,0.3,60,122,3
10.1016/j.cej.2020.128047,Ru,0,0,1.01,0,0.3,50,115,3
10.1016/j.cej.2020.128047,Ru,0,0,1.01,0,14,80,111,3
10.1016/j.cej.2020.128047,Ru,0,0,1.01,0,0.3,40,107,3
10.1016/j.cej.2020.128047,Ru,0,0,1.01,0,14,60,95,3
10.1016/j.cej.2020.128047,Ru,0,0,1.01,0,14,50,86,3
10.1016/j.cej.2020.128047,Ru,0,0,1.01,0,0.3,20,85,3
10.1016/j.cej.2020.128047,Ru,0,0,1.01,0,14,40,74,3
10.1016/j.cej.2020.128047,Ru,0,0,1.01,0,0.3,10,65,3
10.1016/j.cej.2020.128047,Ru,0,0,1.01,0,14,20,45,3
10.1016/j.cej.2020.128047,Ru,0,0,1.01,0,14,10,22,3
10.1016/j.cattod.2019.04.043,CuPd,1,0,7.5,0,0.3,10,145,5.2
10.1016/j.cattod.2019.04.043,Pd,0,0,5.6,0,0.3,10,63,5.2
10.1016/j.carbon.2020.08.047,NiCo,1,0,4.19,1.6,14,60,735,12.5
10.1016/j.carbon.2020.08.047,NiCo,1,0,4.19,1.6,14,50,671,12.5
10.1016/j.carbon.2020.08.047,NiCo,1,0,4.19,1.6,14,40,598,12.5
10.1016/j.carbon.2020.08.047,NiCo,1,0,4.19,1.6,14,20,445,12.5
10.1016/j.carbon.2020.08.047,NiCo,1,0,4.19,1.6,14,10,355,12.5
10.1016/j.carbon.2020.08.047,NiCoS,0,0,12.03,4.39,14,60,406,12.5
10.1016/j.carbon.2020.08.047,NiCoS,0,0,12.03,4.39,14,50,372,12.5
10.1016/j.carbon.2020.08.047,NiCoS,0,0,12.03,4.39,14,40,338,12.5
10.1016/j.carbon.2020.08.047,NiCoS,0,0,12.03,4.39,14,20,262,12.5
10.1016/j.carbon.2020.08.047,NiCoS,0,0,12.03,4.39,14,10,198,12.5
10.1016/j.carbon.2017.01.085,NiFe,1,0,48.02,5.62,0.3,20,295,40
10.1016/j.carbon.2017.01.085,NiFe,1,0,48.02,5.62,0.3,10,248,40
10.1016/j.carbon.2016.12.004,PtPd,1,1,17.66,8.7,0.3,20,167,10
10.1016/j.carbon.2016.12.004,PtPd,1,1,16.63,10.7,0.3,20,75,10
10.1016/j.carbon.2016.12.004,PtPd,1,1,16.63,10.7,0.3,10,58,10
10.1016/j.carbon.2016.12.004,PtPd,1,1,12.15,9.7,0.3,20,89,10
10.1016/j.carbon.2016.12.004,PtPd,1,1,12.15,9.7,0.3,10,74,10
10.1016/j.carbon.2016.12.004,PtPd,1,1,11.54,10.8,0.3,20,116,10
10.1016/j.carbon.2016.12.004,PtPd,1,1,11.54,10.8,0.3,10,85,10
10.1016/j.apsusc.2020.147786,CoNi,1,0,9.92,7.86,13,50,230,10
10.1016/j.apsusc.2020.147786,CoNi,1,0,9.92,7.86,13,40,210,10
10.1016/j.apsusc.2020.147786,CoNi,1,0,9.92,7.86,13,20,169,10
10.1016/j.apsusc.2020.147786,CoNi,1,0,9.92,7.86,13,10,130,10
10.1016/j.apsusc.2020.147786,CoNi,1,0,7.16,8.62,13,50,364,10
10.1016/j.apsusc.2020.147786,CoNi,1,0,7.16,8.62,13,40,360,10
10.1016/j.apsusc.2020.147786,CoNi,1,0,7.16,8.62,13,20,340,10
10.1016/j.apsusc.2020.147786,CoNi,1,0,7.16,8.62,13,10,313,10
10.1016/j.apsusc.2020.147786,CoNi,1,0,4.79,6.97,13,20,440,10
10.1016/j.apsusc.2020.147786,CoNi,1,0,4.79,6.97,13,10,394,10
10.1016/j.apcatb.2021.120512,CoFe,1,0,31.48,4.34,14.5,100,391,29.6
10.1016/j.apcatb.2021.120512,CoFe,1,0,31.48,4.34,14.5,80,358,29.6
10.1016/j.apcatb.2021.120512,CoFe,1,0,31.48,4.34,14.5,60,323,29.6
10.1016/j.apcatb.2021.120512,CoFe,1,0,31.48,4.34,14.5,50,303,29.6
10.1016/j.apcatb.2021.120512,CoFe,1,0,31.48,4.34,14.5,40,283,29.6
10.1016/j.apcatb.2021.120512,CoFe,1,0,31.48,4.34,14.5,20,230,29.6
10.1016/j.apcatb.2021.120512,CoFe,1,0,31.48,4.34,14.5,10,186,29.6
10.1016/j.apcatb.2021.120512,CoFe,1,0,25.15,9.88,14.3,100,341,23.3
10.1016/j.apcatb.2021.120512,CoFe,1,0,25.15,9.88,14.3,80,307,23.3
10.1016/j.apcatb.2021.120512,CoFe,1,0,25.15,9.88,14.3,60,269,23.3
10.1016/j.apcatb.2021.120512,CoFe,1,0,25.15,9.88,14.3,50,248,23.3
10.1016/j.apcatb.2021.120512,CoFe,1,0,25.15,9.88,14.3,40,225,23.3
10.1016/j.apcatb.2021.120512,CoFe,1,0,25.15,9.88,14.3,20,166,23.3
10.1016/j.apcatb.2021.120512,CoFe,1,0,25.15,9.88,14.3,10,120,23.3
10.1016/j.apcatb.2021.120512,CoFe,1,0,23.58,10.93,14,100,358,13.8
10.1016/j.apcatb.2021.120512,CoFe,1,0,23.58,10.93,14,80,325,13.8
10.1016/j.apcatb.2021.120512,CoFe,1,0,23.58,10.93,14,60,292,13.8
10.1016/j.apcatb.2021.120512,CoFe,1,0,23.58,10.93,14,50,271,13.8
10.1016/j.apcatb.2021.120512,CoFe,1,0,23.58,10.93,14,40,249,13.8
10.1016/j.apcatb.2021.120512,CoFe,1,0,23.58,10.93,14,20,193,13.8
10.1016/j.apcatb.2021.120512,CoFe,1,0,23.58,10.93,14,10,147,13.8
10.1016/j.apcatb.2018.11.083,NiCoP,0,0,63.27,1.63,7.4,60,632,4.8
10.1016/j.apcatb.2018.11.083,NiCoP,0,0,63.27,1.63,7.4,50,586,4.8
10.1016/j.apcatb.2018.11.083,NiCoP,0,0,63.27,1.63,7.4,40,535,4.8
10.1016/j.apcatb.2018.11.083,NiCoP,0,0,63.27,1.63,0.3,60,405,4.8
10.1016/j.apcatb.2018.11.083,NiCoP,0,0,63.27,1.63,7.4,20,405,4.8
10.1016/j.apcatb.2018.11.083,NiCoP,0,0,63.27,1.63,0.3,50,385,4.8
10.1016/j.apcatb.2018.11.083,NiCoP,0,0,63.27,1.63,0.3,40,365,4.8
10.1016/j.apcatb.2018.11.083,NiCoP,0,0,63.27,1.63,14,20,330,4.8
10.1016/j.apcatb.2018.11.083,NiCoP,0,0,63.27,1.63,7.4,10,326,4.8
10.1016/j.apcatb.2018.11.083,NiCoP,0,0,63.27,1.63,0.3,20,319,4.8
10.1016/j.apcatb.2018.11.083,NiCoP,0,0,63.27,1.63,14,10,289,4.8
10.1016/j.apcatb.2018.11.083,NiCoP,0,0,63.27,1.63,0.3,10,284,4.8
10.1016/j.apcatb.2018.11.083,NiCoP,0,0,62.09,0.87,7.4,60,545,4.8
10.1016/j.apcatb.2018.11.083,NiCoP,0,0,62.09,0.87,7.4,50,502,4.8
10.1016/j.apcatb.2018.11.083,NiCoP,0,0,62.09,0.87,7.4,40,453,4.8
10.1016/j.apcatb.2018.11.083,NiCoP,0,0,62.09,0.87,14,60,358,4.8
10.1016/j.apcatb.2018.11.083,NiCoP,0,0,62.09,0.87,0.3,60,354,4.8
10.1016/j.apcatb.2018.11.083,NiCoP,0,0,62.09,0.87,14,50,337,4.8
10.1016/j.apcatb.2018.11.083,NiCoP,0,0,62.09,0.87,0.3,50,327,4.8
10.1016/j.apcatb.2018.11.083,NiCoP,0,0,62.09,0.87,7.4,20,327,4.8
10.1016/j.apcatb.2018.11.083,NiCoP,0,0,62.09,0.87,14,40,312,4.8
10.1016/j.apcatb.2018.11.083,NiCoP,0,0,62.09,0.87,0.3,40,302,4.8
10.1016/j.apcatb.2018.11.083,NiCoP,0,0,62.09,0.87,14,20,255,4.8
10.1016/j.apcatb.2018.11.083,NiCoP,0,0,62.09,0.87,7.4,10,241,4.8
10.1016/j.apcatb.2018.11.083,NiCoP,0,0,62.09,0.87,0.3,20,239,4.8
10.1016/j.apcatb.2018.11.083,NiCoP,0,0,62.09,0.87,14,10,206,4.8
10.1016/j.apcatb.2018.11.083,NiCoP,0,0,62.09,0.87,0.3,10,200,4.8
10.1016/j.apcatb.2018.11.083,NiCoP,0,0,61.52,2.53,7.4,60,418,4.8
10.1016/j.apcatb.2018.11.083,NiCoP,0,0,61.52,2.53,7.4,50,374,4.8
10.1016/j.apcatb.2018.11.083,NiCoP,0,0,61.52,2.53,7.4,40,328,4.8
10.1016/j.apcatb.2018.11.083,NiCoP,0,0,61.52,2.53,14,60,276,4.8
10.1016/j.apcatb.2018.11.083,NiCoP,0,0,61.52,2.53,0.3,60,267,4.8
10.1016/j.apcatb.2018.11.083,NiCoP,0,0,61.52,2.53,14,50,264,4.8
10.1016/j.apcatb.2018.11.083,NiCoP,0,0,61.52,2.53,14,40,253,4.8
10.1016/j.apcatb.2018.11.083,NiCoP,0,0,61.52,2.53,0.3,50,251,4.8
10.1016/j.apcatb.2018.11.083,NiCoP,0,0,61.52,2.53,0.3,40,234,4.8
10.1016/j.apcatb.2018.11.083,NiCoP,0,0,61.52,2.53,7.4,20,228,4.8
10.1016/j.apcatb.2018.11.083,NiCoP,0,0,61.52,2.53,14,20,220,4.8
10.1016/j.apcatb.2018.11.083,NiCoP,0,0,61.52,2.53,0.3,20,192,4.8
10.1016/j.apcatb.2018.11.083,NiCoP,0,0,61.52,2.53,14,10,190,4.8
10.1016/j.apcatb.2018.11.083,NiCoP,0,0,61.52,2.53,0.3,10,165,4.8
10.1016/j.apcatb.2018.11.083,NiCoP,0,0,61.52,2.53,7.4,10,163,4.8