DOI,Composition,Alloy_or_not,Pt_or_not,Weight_ratio (wt%),N_doped (at%),pH,Current_density (mA/cm2),Overpotential (mV),Particle_size (nm)
10.1016/j.apcatb.2018.11.083,NiCoP,0,0,60.2,1.89,7.4,60,261,4.8
10.1016/j.apcatb.2018.11.083,NiCoP,0,0,60.2,1.89,7.4,50,234,4.8
10.1016/j.apcatb.2018.11.083,NiCoP,0,0,60.2,1.89,7.4,40,210,4.8
10.1016/j.apcatb.2018.11.083,NiCoP,0,0,60.2,1.89,14,60,197,4.8
10.1016/j.apcatb.2018.11.083,NiCoP,0,0,60.2,1.89,14,50,192,4.8
10.1016/j.apcatb.2018.11.083,NiCoP,0,0,60.2,1.89,14,40,186,4.8
10.1016/j.apcatb.2018.11.083,NiCoP,0,0,60.2,1.89,14,20,163,4.8
10.1016/j.apcatb.2018.11.083,NiCoP,0,0,60.2,1.89,7.4,20,150,4.8
10.1016/j.apcatb.2018.11.083,NiCoP,0,0,60.2,1.89,0.3,60,147,4.8
10.1016/j.apcatb.2018.11.083,NiCoP,0,0,60.2,1.89,0.3,50,141,4.8
10.1016/j.apcatb.2018.11.083,NiCoP,0,0,60.2,1.89,0.3,40,135,4.8
10.1016/j.apcatb.2018.11.083,NiCoP,0,0,60.2,1.89,14,10,130,4.8
10.1016/j.apcatb.2018.11.083,NiCoP,0,0,60.2,1.89,0.3,20,117,4.8
10.1016/j.apcatb.2018.11.083,NiCoP,0,0,60.2,1.89,7.4,10,110,4.8
10.1016/j.apcatb.2018.11.083,NiCoP,0,0,60.2,1.89,0.3,10,100,4.8
10.1007/s40843-021-1902-2,FeCoP,0,0,19.99,17.36,13,200,319,30
10.1007/s40843-021-1902-2,FeCoP,0,0,19.99,17.36,13,150,294,30
10.1007/s40843-021-1902-2,FeCoP,0,0,19.99,17.36,13,100,265,30
10.1007/s40843-021-1902-2,FeCoP,0,0,19.99,17.36,13,80,249,30
10.1007/s40843-021-1902-2,FeCoP,0,0,19.99,17.36,13,60,232,30
10.1007/s40843-021-1902-2,FeCoP,0,0,19.99,17.36,13,50,222,30
10.1007/s40843-021-1902-2,FeCoP,0,0,19.99,17.36,13,40,214,30
10.1007/s40843-021-1902-2,FeCoP,0,0,19.99,17.36,13,20,183,30
10.1007/s40843-021-1902-2,FeCoP,0,0,19.99,17.36,13,10,157,30
10.1007/s40843-021-1732-1,RuCoMn,1,0,37,2.24,7.4,100,518,10
10.1007/s40843-021-1732-1,RuCoMn,1,0,37,2.24,7.4,80,458,10
10.1007/s40843-021-1732-1,RuCoMn,1,0,37,2.24,7.4,60,377,10
10.1007/s40843-021-1732-1,RuCoMn,1,0,37,2.24,0.3,250,357,10
10.1007/s40843-021-1732-1,RuCoMn,1,0,37,2.24,0.3,200,325,10
10.1007/s40843-021-1732-1,RuCoMn,1,0,37,2.24,7.4,50,322,10
10.1007/s40843-021-1732-1,RuCoMn,1,0,37,2.24,0.3,150,294,10
10.1007/s40843-021-1732-1,RuCoMn,1,0,37,2.24,14,250,290,10
10.1007/s40843-021-1732-1,RuCoMn,1,0,37,2.24,7.4,40,263,10
10.1007/s40843-021-1732-1,RuCoMn,1,0,37,2.24,14,200,254,10
10.1007/s40843-021-1732-1,RuCoMn,1,0,37,2.24,0.3,100,252,10
10.1007/s40843-021-1732-1,RuCoMn,1,0,37,2.24,0.3,80,234,10
10.1007/s40843-021-1732-1,RuCoMn,1,0,37,2.24,14,150,214,10
10.1007/s40843-021-1732-1,RuCoMn,1,0,37,2.24,0.3,60,212,10
10.1007/s40843-021-1732-1,RuCoMn,1,0,37,2.24,0.3,50,200,10
10.1007/s40843-021-1732-1,RuCoMn,1,0,37,2.24,0.3,40,185,10
10.1007/s40843-021-1732-1,RuCoMn,1,0,37,2.24,14,100,168,10
10.1007/s40843-021-1732-1,RuCoMn,1,0,37,2.24,7.4,20,150,10
10.1007/s40843-021-1732-1,RuCoMn,1,0,37,2.24,0.3,20,149,10
10.1007/s40843-021-1732-1,RuCoMn,1,0,37,2.24,14,80,147,10
10.1007/s40843-021-1732-1,RuCoMn,1,0,37,2.24,14,60,123,10
10.1007/s40843-021-1732-1,RuCoMn,1,0,37,2.24,0.3,10,119,10
10.1007/s40843-021-1732-1,RuCoMn,1,0,37,2.24,14,50,112,10
10.1007/s40843-021-1732-1,RuCoMn,1,0,37,2.24,14,40,96,10
10.1007/s40843-021-1732-1,RuCoMn,1,0,37,2.24,7.4,10,90,10
10.1007/s40843-021-1732-1,RuCoMn,1,0,37,2.24,14,20,60,10
10.1007/s40843-021-1732-1,RuCoMn,1,0,37,2.24,14,10,38,10
10.1007/s40843-021-1732-1,RuCo,1,0,27.9,1.66,7.4,40,693,10
10.1007/s40843-021-1732-1,RuCo,1,0,27.9,1.66,7.4,20,458,10
10.1007/s40843-021-1732-1,RuCo,1,0,27.9,1.66,0.3,250,362,10
10.1007/s40843-021-1732-1,RuCo,1,0,27.9,1.66,14,250,338,10
10.1007/s40843-021-1732-1,RuCo,1,0,27.9,1.66,0.3,200,338,10
10.1007/s40843-021-1732-1,RuCo,1,0,27.9,1.66,0.3,150,311,10
10.1007/s40843-021-1732-1,RuCo,1,0,27.9,1.66,14,200,305,10
10.1007/s40843-021-1732-1,RuCo,1,0,27.9,1.66,0.3,100,278,10
10.1007/s40843-021-1732-1,RuCo,1,0,27.9,1.66,14,150,268,10
10.1007/s40843-021-1732-1,RuCo,1,0,27.9,1.66,0.3,80,263,10
10.1007/s40843-021-1732-1,RuCo,1,0,27.9,1.66,7.4,10,254,10
10.1007/s40843-021-1732-1,RuCo,1,0,27.9,1.66,0.3,60,245,10
10.1007/s40843-021-1732-1,RuCo,1,0,27.9,1.66,0.3,50,231,10
10.1007/s40843-021-1732-1,RuCo,1,0,27.9,1.66,14,100,223,10
10.1007/s40843-021-1732-1,RuCo,1,0,27.9,1.66,0.3,40,220,10
10.1007/s40843-021-1732-1,RuCo,1,0,27.9,1.66,14,80,201,10
10.1007/s40843-021-1732-1,RuCo,1,0,27.9,1.66,0.3,20,181,10
10.1007/s40843-021-1732-1,RuCo,1,0,27.9,1.66,14,60,177,10
10.1007/s40843-021-1732-1,RuCo,1,0,27.9,1.66,14,50,160,10
10.1007/s40843-021-1732-1,RuCo,1,0,27.9,1.66,0.3,10,150,10
10.1007/s40843-021-1732-1,RuCo,1,0,27.9,1.66,14,40,147,10
10.1007/s40843-021-1732-1,RuCo,1,0,27.9,1.66,14,20,103,10
10.1007/s40843-021-1732-1,RuCo,1,0,27.9,1.66,14,10,67,10
10.1002/smll.201903395,CoCu,1,0,6.13,2.72,14,50,450,11.35
10.1002/smll.201903395,CoCu,1,0,6.13,2.72,14,10,270,11.35
10.1002/smll.201903395,CoFe,1,0,5.92,2.05,14,50,420,10.95
10.1002/smll.201903395,CoFe,1,0,5.92,2.05,14,10,250,10.95
10.1002/smll.201903395,CoNi,1,0,4.28,1.5,14,100,410,10.57
10.1002/smll.201903395,CoNi,1,0,4.28,1.5,14,50,340,10.57
10.1002/smll.201903395,CoNi,1,0,4.28,1.5,14,10,240,10.57
10.1002/smll.201903395,CoMn,1,0,2.9,1.15,14,50,540,10.27
10.1002/smll.201903395,CoMn,1,0,2.9,1.15,14,10,330,10.27
10.1002/smll.201903395,Co,0,0,3.11,1.95,14,50,410,11.4
10.1002/smll.201903395,Co,0,0,3.11,1.95,14,10,300,11.4
10.1002/chem.201900320,Pt,0,1,0.07,0,0.3,10,34.8,3
10.1002/chem.201900320,Pt,0,1,0.07,0,0.3,20,47.2,3
10.1002/cctc.201901601,NiPt,1,1,6.69,3.4,14,60,513,19.3
10.1002/cctc.201901601,FeCo,1,0,7.31,3.4,14,60,450,34.2
10.1002/cctc.201901601,FeCo,1,0,7.31,3.4,14,50,441,34.2
10.1002/cctc.201901601,FeCo,1,0,7.31,3.4,14,40,434,34.2
10.1002/cctc.201901601,FeCo,1,0,7.31,3.4,14,20,408,34.2
10.1002/cctc.201901601,FeCo,1,0,7.31,3.4,14,10,380,34.2
10.1002/cctc.201901601,FeCo,1,0,6.69,3.4,14,50,499,19.3
10.1002/cctc.201901601,FeCo,1,0,6.69,3.4,14,40,482,19.3
10.1002/cctc.201901601,FeCo,1,0,6.69,3.4,14,20,439,19.3
10.1002/cctc.201901601,FeCo,1,0,6.69,3.4,14,10,398,19.3
10.1002/cctc.201901601,FeCo,1,0,8.74,3.4,14,60,553,18
10.1002/cctc.201901601,FeCo,1,0,8.74,3.4,14,50,545,18
10.1002/cctc.201901601,FeCo,1,0,8.74,3.4,14,40,534,18
10.1002/cctc.201901601,FeCo,1,0,8.74,3.4,14,20,497,18
10.1002/cctc.201901601,FeCo,1,0,8.74,3.4,14,10,458,18
10.1002/cctc.201901601,FeCo,1,0,9.87,3.4,14,60,519,15.6
10.1002/cctc.201901601,FeCo,1,0,9.87,3.4,14,50,510,15.6
10.1002/cctc.201901601,FeCo,1,0,9.87,3.4,14,40,499,15.6
10.1002/cctc.201901601,FeCo,1,0,9.87,3.4,14,20,463,15.6
10.1002/cctc.201901601,FeCo,1,0,9.87,3.4,14,10,425,15.6
10.1002/anie.202013047,NiMo,1,0,100,0,13,10,56,10
10.1002/anie.202013047,NiMo,1,0,100,0,14,10,42,10
10.1002/adfm.202001756,Pt,0,1,10.2,0,0.3,50,50,2
10.1002/adfm.202001756,Pt,0,1,10.2,0,0.3,40,45.2,2
10.1002/adfm.202001756,Pt,0,1,10.2,0,0.3,20,34.6,2
10.1002/adfm.202001756,Pt,0,1,10.2,0,0.3,10,28.27,2
10.1002/adfm.202306340,PtMo,1,1,27.24,17.83,0.3,10,35,2.7
10.1002/adfm.202306340,PtMo,1,1,27.24,17.83,0.3,20,43,2.7
10.1002/adfm.202306340,PtMo,1,1,27.24,17.83,0.3,50,52,2.7
10.1002/adfm.202306340,PtMo,1,1,27.24,17.83,0.3,100,63,2.7
10.1002/adfm.202306340,PtMo,1,1,27.24,17.83,14,10,35,2.7
10.1002/adfm.202306340,PtMo,1,1,27.24,17.83,14,20,43,2.7
10.1002/adfm.202306340,PtMo,1,1,27.24,17.83,14,50,57,2.7
10.1002/adfm.202306340,PtMo,1,1,27.24,17.83,14,100,80,2.7
10.1002/adfm.202306340,Pt,0,1,14.3,17.83,0.3,10,65,3
10.1002/adfm.202306340,Pt,0,1,14.3,17.83,0.3,20,73,3
10.1002/adfm.202306340,Pt,0,1,14.3,17.83,0.3,50,85,3
10.1002/adfm.202306340,Pt,0,1,14.3,17.83,0.3,100,98,3
10.1002/adfm.202306340,Pt,0,1,14.3,17.83,14,10,83,3
10.1002/adfm.202306340,Pt,0,1,14.3,17.83,14,20,91,3
10.1002/adfm.202306340,Pt,0,1,14.3,17.83,14,50,103,3
10.1002/adfm.202306340,Pt,0,1,14.3,17.83,14,100,125,3
10.1002/adma.202303030,Pt3Fe,1,1,11.3,16.3,0.3,10,12,2
10.1002/adma.202303030,Pt3Fe,1,1,11.3,16.3,0.3,20,18,2
10.1002/adma.202303030,Pt3Fe,1,1,11.3,16.3,0.3,40,27,2
10.1002/adma.202303030,Pt3Fe,1,1,11.3,16.3,7.4,10,45,2
10.1002/adma.202303030,Pt3Fe,1,1,11.3,16.3,7.4,20,121,2
10.1002/adma.202303030,Pt3Fe,1,1,11.3,16.3,14,10,29,2
10.1002/adma.202303030,Pt3Fe,1,1,11.3,16.3,14,20,55,2
10.1002/adma.202303030,Pt3Fe,1,1,11.3,16.3,14,40,91,2
10.1002/smll.202400240,Pt3Fe,1,1,15.16,31.17,14,10,8,9.63
10.1002/smll.202400240,Pt3Fe,1,1,15.16,31.17,14,20,46,9.63
10.1002/smll.202400240,Pt3Fe,1,1,15.16,31.17,14,30,66,9.63
10.1002/smll.202400240,Pt3Fe,1,1,15.16,31.17,14,40,103,9.63
10.1002/smll.202400240,Pt3Fe,1,1,15.16,31.17,14,50,139,9.63
10.1002/smll.202309819,PtRhNiFeCu,1,1,24,0,14,10,12,3.53
10.1002/smll.202309819,PtRhNiFeCu,1,1,24,0,14,20,17,3.53
10.1002/smll.202309819,PtRhNiFeCu,1,1,24,0,14,50,31,3.53
10.1002/smll.202309819,PtRhNiFeCu,1,1,24,0,14,100,50,3.53